Program Version,EnergyPlus, Version 25.2.0-cf7368216c, YMD=2026.03.17 01:02
1,5,Environment Title[],Latitude[deg],Longitude[deg],Time Zone[],Elevation[m]
2,8,Day of Simulation[],Month[],Day of Month[],DST Indicator[1=yes 0=no],Hour[],StartMinute[],EndMinute[],DayType
3,5,Cumulative Day of Simulation[],Month[],Day of Month[],DST Indicator[1=yes 0=no],DayType  ! When Daily Report Variables Requested
4,2,Cumulative Days of Simulation[],Month[]  ! When Monthly Report Variables Requested
5,1,Cumulative Days of Simulation[] ! When Run Period Report Variables Requested
6,1,Calendar Year of Simulation[] ! When Annual Report Variables Requested
7,9,Environment,Site Outdoor Air Drybulb Temperature [C] !Monthly [Value,Min,Day,Hour,Minute,Max,Day,Hour,Minute]
8,1,Environment,Site Diffuse Solar Radiation Rate per Area [W/m2] !Hourly
9,1,Environment,Site Direct Solar Radiation Rate per Area [W/m2] !Hourly
10,1,ESTE,Zone Mean Air Temperature [C] !Hourly
11,1,ESTE,Zone Air Temperature [C] !Hourly
12,1,ESTE,Zone Air Relative Humidity [%] !Hourly
147,1,OESTE,Zone Air Temperature [C] !Hourly
148,1,OESTE,Zone Air Relative Humidity [%] !Hourly
End of Data Dictionary
1,RUN PERIOD 1,  18.84, -99.26,  -6.00,1303.60
2,1, 1, 1, 0, 1, 0.00,60.00,Sunday
8,0.0
9,0.0
10,25.285324400236536
11,25.285324400236536
12,29.21781358268367
147,25.351451277459745
148,29.103107565957544
2,1, 1, 1, 0, 2, 0.00,60.00,Sunday
8,0.0
9,0.0
10,24.565906961541174
11,24.565906961541174
12,30.4027190622726
147,24.627710299883578
148,30.29065118408703
2,1, 1, 1, 0, 3, 0.00,60.00,Sunday
8,0.0
9,0.0
10,23.89900906364679
11,23.89900906364679
12,31.642846879212893
147,23.941853765298493
148,31.56160379202359
2,1, 1, 1, 0, 4, 0.00,60.00,Sunday
8,0.0
9,0.0
10,23.268712064197118
11,23.268712064197118
12,32.86765246593142
147,23.296898538987715
148,32.81181624078331
2,1, 1, 1, 0, 5, 0.00,60.00,Sunday
8,0.0
9,0.0
10,22.66940869134582
11,22.66940869134582
12,34.19318792521262
147,22.688070985060516
148,34.15455523077937
2,1, 1, 1, 0, 6, 0.00,60.00,Sunday
8,0.0
9,0.0
10,22.089875251907696
11,22.089875251907696
12,35.490375029343106
147,22.102208790450803
148,35.463734949491986
2,1, 1, 1, 0, 7, 0.00,60.00,Sunday
8,0.0
9,0.0
10,21.51926807215432
11,21.51926807215432
12,36.730270588504496
147,21.527640726707677
148,36.711470630780724
2,1, 1, 1, 0, 8, 0.00,60.00,Sunday
8,38.19444444444445
9,448.1944444444444
10,20.951875883306673
11,20.951875883306673
12,38.04640395500203
147,20.959029907402762
148,38.029638835925525
2,1, 1, 1, 0, 9, 0.00,60.00,Sunday
8,71.58333333333333
9,720.1666666666666
10,20.478219385436013
11,20.478219385436013
12,39.23492796726892
147,20.55433879598363
148,39.050485627953634
2,1, 1, 1, 0,10, 0.00,60.00,Sunday
8,85.75
9,844.25
10,20.336059670318793
11,20.336059670318793
12,39.63646463708795
147,20.65484867047654
148,38.86545045729331
2,1, 1, 1, 0,11, 0.00,60.00,Sunday
8,95.75
9,901.4166666666666
10,20.65214611019789
11,20.65214611019789
12,38.90007733450356
147,21.435319309060276
148,37.07824007045695
2,1, 1, 1, 0,12, 0.00,60.00,Sunday
8,102.16666666666667
9,917.6666666666666
10,21.320689556181026
11,21.320689556181026
12,37.374546237110756
147,22.79705552334939
148,34.16779683555327
2,1, 1, 1, 0,13, 0.00,60.00,Sunday
8,123.25
9,837.5833333333334
10,22.332681996021506
11,22.332681996021506
12,35.18171450039032
147,24.200839527339983
148,31.42678668788687
2,1, 1, 1, 0,14, 0.00,60.00,Sunday
8,166.75
9,670.9166666666666
10,23.6755453531338
11,23.6755453531338
12,32.44008690210679
147,25.477445959080914
148,29.124395512542876
2,1, 1, 1, 0,15, 0.00,60.00,Sunday
8,158.75
9,602.1666666666666
10,25.005838832447495
11,25.005838832447495
12,29.947812507034772
147,26.646223489002626
148,27.172005429559118
2,1, 1, 1, 0,16, 0.00,60.00,Sunday
8,103.58333333333333
9,517.8333333333334
10,26.264450994988078
11,26.264450994988078
12,27.792052973324207
147,27.62541811025721
148,25.65379272267845
2,1, 1, 1, 0,17, 0.00,60.00,Sunday
8,56.666666666666664
9,349.0833333333333
10,27.371287198267922
11,27.371287198267922
12,26.024129959545263
147,28.37858385012956
148,24.53688961640651
2,1, 1, 1, 0,18, 0.00,60.00,Sunday
8,17.75
9,156.66666666666666
10,28.11548463162737
11,28.11548463162737
12,24.890979677179264
147,28.79839402972343
148,23.922174704230518
2,1, 1, 1, 0,19, 0.00,60.00,Sunday
8,0.0
9,0.0
10,28.50112184615415
11,28.50112184615415
12,24.307446985829248
147,28.863917395681245
148,23.80135455957772
2,1, 1, 1, 0,20, 0.00,60.00,Sunday
8,0.0
9,0.0
10,28.498770921061976
11,28.498770921061976
12,24.295870845461753
147,28.636764955122757
148,24.102404912301907
2,1, 1, 1, 0,21, 0.00,60.00,Sunday
8,0.0
9,0.0
10,28.183149322967225
11,28.183149322967225
12,24.746220257038104
147,28.22114634265724
148,24.691756738888714
2,1, 1, 1, 0,22, 0.00,60.00,Sunday
8,0.0
9,0.0
10,27.669328190629873
11,27.669328190629873
12,25.49978236714988
147,27.700543449133395
148,25.45318137022112
2,1, 1, 1, 0,23, 0.00,60.00,Sunday
8,0.0
9,0.0
10,26.94265946065204
11,26.94265946065204
12,26.609776497705898
147,26.974324359404577
148,26.560437921048706
2,1, 1, 1, 0,24, 0.00,60.00,Sunday
8,0.0
9,0.0
10,26.103537148012396
11,26.103537148012396
12,27.958898485683488
147,26.142557748166638
148,27.89403302164038
2,2, 1, 2, 0, 1, 0.00,60.00,Monday
8,0.0
9,0.0
10,25.320464085004673
11,25.320464085004673
12,29.287006540867903
147,25.386884229608984
148,29.171549784781146
2,2, 1, 2, 0, 2, 0.00,60.00,Monday
8,0.0
9,0.0
10,24.592257528194818
11,24.592257528194818
12,30.58663000665283
147,24.65372638912699
148,30.47452551582066
2,2, 1, 2, 0, 3, 0.00,60.00,Monday
8,0.0
9,0.0
10,23.89387131663086
11,23.89387131663086
12,31.894499362553486
147,23.93471781968094
148,31.816446055609465
2,2, 1, 2, 0, 4, 0.00,60.00,Monday
8,0.0
9,0.0
10,23.20612413474393
11,23.20612413474393
12,33.244465893096454
147,23.230565466389702
148,33.19549847559864
2,2, 1, 2, 0, 5, 0.00,60.00,Monday
8,0.0
9,0.0
10,22.524777486459868
11,22.524777486459868
12,34.593543104968354
147,22.537588003088715
148,34.56670616177342
2,2, 1, 2, 0, 6, 0.00,60.00,Monday
8,0.0
9,0.0
10,21.84796461334089
11,21.84796461334089
12,36.000175678100796
147,21.853489017734645
148,35.98808262027468
2,2, 1, 2, 0, 7, 0.00,60.00,Monday
8,0.0
9,0.0
10,21.191096775126148
11,21.191096775126148
12,37.45763746166644
147,21.191751802849183
148,37.45616176130272
2,2, 1, 2, 0, 8, 0.00,60.00,Monday
8,37.416666666666664
9,442.0833333333333
10,20.56040962814592
11,20.56040962814592
12,38.97845706802952
147,20.559781814264877
148,38.979927418074915
2,2, 1, 2, 0, 9, 0.00,60.00,Monday
8,74.5
9,695.5833333333334
10,20.05836122908263
11,20.05836122908263
12,40.22121038027859
147,20.12862463293645
148,40.04608390883737
2,2, 1, 2, 0,10, 0.00,60.00,Monday
8,89.25
9,832.5
10,19.916769235239702
11,19.916769235239702
12,40.65120289367926
147,20.22839802520074
148,39.87526411977398
2,2, 1, 2, 0,11, 0.00,60.00,Monday
8,93.41666666666667
9,914.4166666666666
10,20.229867568851372
11,20.229867568851372
12,39.95826214996071
147,20.982871791663822
148,38.15134530721105
2,2, 1, 2, 0,12, 0.00,60.00,Monday
8,96.5
9,943.8333333333334
10,20.904817804992575
11,20.904817804992575
12,38.30075033749009
147,22.370592871662225
148,35.029198999243185
2,2, 1, 2, 0,13, 0.00,60.00,Monday
8,96.25
9,946.75
10,21.987129925755635
11,21.987129925755635
12,35.89311942574896
147,23.93051285085484
148,31.90937637218956
2,2, 1, 2, 0,14, 0.00,60.00,Monday
8,98.58333333333333
9,905.5
10,23.441292503939522
11,23.441292503939522
12,32.9211933648621
147,25.371914155386623
148,29.32549746266294
2,2, 1, 2, 0,15, 0.00,60.00,Monday
8,105.16666666666667
9,783.25
10,24.918587083346967
11,24.918587083346967
12,30.134898576776497
147,26.695334792115144
148,27.120816278061607
2,2, 1, 2, 0,16, 0.00,60.00,Monday
8,94.83333333333333
9,629.5833333333334
10,26.347627631452415
11,26.347627631452415
12,27.67652172874297
147,27.816973758080593
148,25.386486181148115
2,2, 1, 2, 0,17, 0.00,60.00,Monday
8,57.166666666666664
9,453.25
10,27.589836138918642
11,27.589836138918642
12,25.706710792018313
147,28.660289915768885
148,24.150789519408416
2,2, 1, 2, 0,18, 0.00,60.00,Monday
8,18.583333333333332
9,189.25
10,28.42364786153166
11,28.42364786153166
12,24.45408147012823
147,29.128535693501608
148,23.47438910068223
2,2, 1, 2, 0,19, 0.00,60.00,Monday
8,0.0
9,0.0
10,28.869286320427587
11,28.869286320427587
12,23.787539224646366
147,29.21845287896109
148,23.31186456366841
2,2, 1, 2, 0,20, 0.00,60.00,Monday
8,0.0
9,0.0
10,28.8895045498069
11,28.8895045498069
12,23.74029186442293
147,28.987184728618473
148,23.60680964350512
2,2, 1, 2, 0,21, 0.00,60.00,Monday
8,0.0
9,0.0
10,28.57179906187352
11,28.57179906187352
12,24.18197863378421
147,28.56386595009414
148,24.193312242268515
2,2, 1, 2, 0,22, 0.00,60.00,Monday
8,0.0
9,0.0
10,28.087527590038615
11,28.087527590038615
12,24.873005376996264
147,28.0498497685314
148,24.927536217656357
2,2, 1, 2, 0,23, 0.00,60.00,Monday
8,0.0
9,0.0
10,27.403210119873126
11,27.403210119873126
12,25.888002343848044
147,27.382225478092323
148,25.919868058758777
2,2, 1, 2, 0,24, 0.00,60.00,Monday
8,0.0
9,0.0
10,26.58442532939807
11,26.58442532939807
12,27.163518715507944
147,26.561044677040552
148,27.20069685774079
2,3, 1, 3, 0, 1, 0.00,60.00,Tuesday
8,0.0
9,0.0
10,25.80401512699255
11,25.80401512699255
12,28.444441912902416
147,25.82224710213266
148,28.413652292752477
2,3, 1, 3, 0, 2, 0.00,60.00,Tuesday
8,0.0
9,0.0
10,25.10262821876037
11,25.10262821876037
12,29.654485636901015
147,25.123823676081944
148,29.6171073459977
2,3, 1, 3, 0, 3, 0.00,60.00,Tuesday
8,0.0
9,0.0
10,24.438106188345994
11,24.438106188345994
12,30.854757207893766
147,24.446171893901504
148,30.840000692370676
2,3, 1, 3, 0, 4, 0.00,60.00,Tuesday
8,0.0
9,0.0
10,23.79435946658934
11,23.79435946658934
12,32.070177227886525
147,23.78585540727123
148,32.086671704425264
2,3, 1, 3, 0, 5, 0.00,60.00,Tuesday
8,0.0
9,0.0
10,23.15362327802806
11,23.15362327802806
12,33.35080297743935
147,23.135205899077604
148,33.388025638626964
2,3, 1, 3, 0, 6, 0.00,60.00,Tuesday
8,0.0
9,0.0
10,22.518916927641573
11,22.518916927641573
12,34.630413214736805
147,22.493603233274886
148,34.68374413941441
2,3, 1, 3, 0, 7, 0.00,60.00,Tuesday
8,0.0
9,0.0
10,21.896954073594625
11,21.896954073594625
12,35.89524651005507
147,21.86894670336689
148,35.956692562574
2,3, 1, 3, 0, 8, 0.00,60.00,Tuesday
8,36.583333333333336
9,459.4166666666667
10,21.295749500470546
11,21.295749500470546
12,37.209289860988314
147,21.267592920658306
148,37.27356585995158
2,3, 1, 3, 0, 9, 0.00,60.00,Tuesday
8,70.08333333333333
9,726.0
10,20.812613544385943
11,20.812613544385943
12,38.359875218714954
147,20.857341721131466
148,38.25383636328401
2,3, 1, 3, 0,10, 0.00,60.00,Tuesday
8,86.16666666666667
9,845.25
10,20.687642076020655
11,20.687642076020655
12,38.71625830883692
147,20.98261324525937
148,38.02087852860062
2,3, 1, 3, 0,11, 0.00,60.00,Tuesday
8,95.08333333333333
9,903.5
10,21.020191996208677
11,21.020191996208677
12,37.994010395205656
147,21.791912969475998
148,36.24502930703933
2,3, 1, 3, 0,12, 0.00,60.00,Tuesday
8,100.25
9,926.6666666666666
10,21.673904295068002
11,21.673904295068002
12,36.501748866511285
147,23.18806801318998
148,33.30337717733672
2,3, 1, 3, 0,13, 0.00,60.00,Tuesday
8,104.16666666666667
9,911.75
10,22.701041903984976
11,22.701041903984976
12,34.330082276190566
147,24.670869520256247
148,30.490972611136424
2,3, 1, 3, 0,14, 0.00,60.00,Tuesday
8,108.91666666666667
9,822.4166666666666
10,24.070307106207007
11,24.070307106207007
12,31.66009473698357
147,26.033914573505502
148,28.162932616504705
2,3, 1, 3, 0,15, 0.00,60.00,Tuesday
8,117.58333333333333
9,638.9166666666666
10,25.444541059218114
11,25.444541059218114
12,29.184891982708777
147,27.262587616818564
148,26.213672594075103
2,3, 1, 3, 0,16, 0.00,60.00,Tuesday
8,104.66666666666667
9,540.0833333333334
10,26.74694609668334
11,26.74694609668334
12,27.025930393607755
147,28.274436505278242
148,24.71310127381209
2,3, 1, 3, 0,17, 0.00,60.00,Tuesday
8,60.5
9,478.5833333333333
10,27.881233235554458
11,27.881233235554458
12,25.279644553317862
147,29.031591299409055
148,23.643504486233084
2,3, 1, 3, 0,18, 0.00,60.00,Tuesday
8,19.583333333333332
9,219.41666666666666
10,28.732186751131422
11,28.732186751131422
12,24.038753828613327
147,29.511549002693396
148,22.97898637835064
2,3, 1, 3, 0,19, 0.00,60.00,Tuesday
8,0.0
9,0.0
10,29.22280900541287
11,29.22280900541287
12,23.342433082831565
147,29.63781835178165
148,22.79023352298097
2,3, 1, 3, 0,20, 0.00,60.00,Tuesday
8,0.0
9,0.0
10,29.30176961760505
11,29.30176961760505
12,23.22668357399178
147,29.4410477595949
148,23.041142472862607
2,3, 1, 3, 0,21, 0.00,60.00,Tuesday
8,0.0
9,0.0
10,29.037496292860208
11,29.037496292860208
12,23.584424136955477
147,29.05138203672232
148,23.565704213772477
2,3, 1, 3, 0,22, 0.00,60.00,Tuesday
8,0.0
9,0.0
10,28.564543406879764
11,28.564543406879764
12,24.240286225655556
147,28.552811352509593
148,24.25662320393126
2,3, 1, 3, 0,23, 0.00,60.00,Tuesday
8,0.0
9,0.0
10,27.854324807447963
11,27.854324807447963
12,25.264027369902532
147,27.855478429315266
148,25.262387651630295
2,3, 1, 3, 0,24, 0.00,60.00,Tuesday
8,0.0
9,0.0
10,27.017584191994093
11,27.017584191994093
12,26.53229272871137
147,27.016059981856543
148,26.53434877892475
2,4, 1, 4, 0, 1, 0.00,60.00,Wednesday
8,0.0
9,0.0
10,26.23543529014613
11,26.23543529014613
12,27.78208523978304
147,26.27406610648111
148,27.7187188942122
2,4, 1, 4, 0, 2, 0.00,60.00,Wednesday
8,0.0
9,0.0
10,25.524581733811832
11,25.524581733811832
12,28.976341625282334
147,25.564001254577477
148,28.90865770995548
2,4, 1, 4, 0, 3, 0.00,60.00,Wednesday
8,0.0
9,0.0
10,24.84294574911583
11,24.84294574911583
12,30.176180429750147
147,24.866772998949145
148,30.13345555271791
2,4, 1, 4, 0, 4, 0.00,60.00,Wednesday
8,0.0
9,0.0
10,24.17349742804244
11,24.17349742804244
12,31.409584152174897
147,24.179422327882595
148,31.398514176413645
2,4, 1, 4, 0, 5, 0.00,60.00,Wednesday
8,0.0
9,0.0
10,23.50021194902955
11,23.50021194902955
12,32.70766561206151
147,23.494749750690534
148,32.718516281494864
2,4, 1, 4, 0, 6, 0.00,60.00,Wednesday
8,0.0
9,0.0
10,22.82737788560898
11,22.82737788560898
12,33.974553276874595
147,22.814021780846147
148,34.00210136186075
2,4, 1, 4, 0, 7, 0.00,60.00,Wednesday
8,0.0
9,0.0
10,22.16187219194965
11,22.16187219194965
12,35.30976882815323
147,22.144109175283223
148,35.34803234442507
2,4, 1, 4, 0, 8, 0.00,60.00,Wednesday
8,36.111111111111114
9,464.3888888888889
10,21.523605238986548
11,21.523605238986548
12,36.71301441265073
147,21.50477381835098
148,36.75532846619904
2,4, 1, 4, 0, 9, 0.00,60.00,Wednesday
8,70.75
9,728.8333333333334
10,21.021351965560275
11,21.021351965560275
12,37.89389226142024
147,21.077220782055065
148,37.76341828468476
2,4, 1, 4, 0,10, 0.00,60.00,Wednesday
8,86.08333333333333
9,846.8333333333334
10,20.88295290342904
11,20.88295290342904
12,38.2755021115371
147,21.19268637615851
148,37.55487796111421
2,4, 1, 4, 0,11, 0.00,60.00,Wednesday
8,94.66666666666667
9,910.3333333333334
10,21.2001040471948
11,21.2001040471948
12,37.58449567770488
147,21.979407784237214
148,35.840162120045484
2,4, 1, 4, 0,12, 0.00,60.00,Wednesday
8,101.5
9,933.5833333333334
10,21.876739558434522
11,21.876739558434522
12,36.096713486962535
147,23.400517489968156
148,32.919620755342905
2,4, 1, 4, 0,13, 0.00,60.00,Wednesday
8,102.25
9,935.25
10,22.94084221584858
11,22.94084221584858
12,33.86566903192311
147,24.936832315727912
148,30.038258082338544
2,4, 1, 4, 0,14, 0.00,60.00,Wednesday
8,98.0
9,914.9166666666666
10,24.363315142867886
11,24.363315142867886
12,31.100694031168015
147,26.35564231291814
148,27.62564690095729
2,4, 1, 4, 0,15, 0.00,60.00,Wednesday
8,89.33333333333333
9,850.6666666666666
10,25.800346082370506
11,25.800346082370506
12,28.562569210812967
147,27.643270367445734
148,25.62455391490556
2,4, 1, 4, 0,16, 0.00,60.00,Wednesday
8,74.16666666666667
9,723.3333333333334
10,27.22390693123353
11,27.22390693123353
12,26.26843959540496
147,28.751512224308943
148,24.02730634286385
2,4, 1, 4, 0,17, 0.00,60.00,Wednesday
8,49.333333333333336
9,531.4166666666666
10,28.489642383577486
11,28.489642383577486
12,24.39607075412957
147,29.59451177807288
148,22.88347232672645
2,4, 1, 4, 0,18, 0.00,60.00,Wednesday
8,18.666666666666668
9,230.66666666666666
10,29.381888796047388
11,29.381888796047388
12,23.155844999344342
147,30.082266795663127
148,22.240288996335195
2,4, 1, 4, 0,19, 0.00,60.00,Wednesday
8,0.0
9,0.0
10,29.87253418409686
11,29.87253418409686
12,22.493362343140877
147,30.178609689211346
148,22.10139307274058
2,4, 1, 4, 0,20, 0.00,60.00,Wednesday
8,0.0
9,0.0
10,29.93514242586235
11,29.93514242586235
12,22.405541418445353
147,29.959944009751585
148,22.37395562834588
2,4, 1, 4, 0,21, 0.00,60.00,Wednesday
8,0.0
9,0.0
10,29.656456058754333
11,29.656456058754333
12,22.76788623506801
147,29.55135656627249
148,22.906319406479856
2,4, 1, 4, 0,22, 0.00,60.00,Wednesday
8,0.0
9,0.0
10,29.17439832072941
11,29.17439832072941
12,23.4103213354791
147,29.029382181459173
148,23.607211255540445
2,4, 1, 4, 0,23, 0.00,60.00,Wednesday
8,0.0
9,0.0
10,28.457672682612113
11,28.457672682612113
12,24.403684000999377
147,28.333437598605112
148,24.580530984382076
2,4, 1, 4, 0,24, 0.00,60.00,Wednesday
8,0.0
9,0.0
10,27.583388656713435
11,27.583388656713435
12,25.67970148615366
147,27.466399316843084
148,25.85556261210799
2,5, 1, 5, 0, 1, 0.00,60.00,Thursday
8,0.0
9,0.0
10,26.73311063796983
11,26.73311063796983
12,26.991968324120034
147,26.67193269442467
148,27.089181300790756
2,5, 1, 5, 0, 2, 0.00,60.00,Thursday
8,0.0
9,0.0
10,25.961301528831882
11,25.961301528831882
12,28.249428451590873
147,25.91070501118253
148,28.334156436520388
2,5, 1, 5, 0, 3, 0.00,60.00,Thursday
8,0.0
9,0.0
10,25.2225895045985
11,25.2225895045985
12,29.515264776360596
147,25.1645851866826
148,29.617469708156197
2,5, 1, 5, 0, 4, 0.00,60.00,Thursday
8,0.0
9,0.0
10,24.503051613440118
11,24.503051613440118
12,30.810240373054125
147,24.429497140626083
148,30.946264853546506
2,5, 1, 5, 0, 5, 0.00,60.00,Thursday
8,0.0
9,0.0
10,23.78437679590371
11,23.78437679590371
12,32.1679780456983
147,23.703447441443135
148,32.325097002198305
2,5, 1, 5, 0, 6, 0.00,60.00,Thursday
8,0.0
9,0.0
10,23.072177904479403
11,23.072177904479403
12,33.47122934772583
147,22.987728878336373
148,33.642724595602346
2,5, 1, 5, 0, 7, 0.00,60.00,Thursday
8,0.0
9,0.0
10,22.384785874282954
11,22.384785874282954
12,34.82651124047317
147,22.300810908713355
148,35.00488380594016
2,5, 1, 5, 0, 8, 0.00,60.00,Thursday
8,34.97222222222222
9,483.25
10,21.741740456965843
11,21.741740456965843
12,36.23742393307611
147,21.661106108086216
148,36.41643534099387
2,5, 1, 5, 0, 9, 0.00,60.00,Thursday
8,68.08333333333333
9,753.0
10,21.222015549117277
11,21.222015549117277
12,37.48323439930572
147,21.221651792087332
148,37.48332770915602
2,5, 1, 5, 0,10, 0.00,60.00,Thursday
8,84.0
9,867.1666666666666
10,21.05216873719159
11,21.05216873719159
12,37.9228187760169
147,21.311642026212667
148,37.3246018631459
2,5, 1, 5, 0,11, 0.00,60.00,Thursday
8,91.83333333333333
9,927.3333333333334
10,21.355145256581206
11,21.355145256581206
12,37.25749467138771
147,22.087651407429792
148,35.63178247079899
2,5, 1, 5, 0,12, 0.00,60.00,Thursday
8,94.25
9,959.5
10,22.045953507272127
11,22.045953507272127
12,35.75048691526131
147,23.50910310975972
148,32.727074959626506
2,5, 1, 5, 0,13, 0.00,60.00,Thursday
8,91.41666666666667
9,975.4166666666666
10,23.11601996228258
11,23.11601996228258
12,33.52936832952256
147,25.1060395774258
148,29.755397932526378
2,5, 1, 5, 0,14, 0.00,60.00,Thursday
8,86.91666666666667
9,963.5
10,24.5555530031439
11,24.5555530031439
12,30.771573870669386
147,26.528569005594736
148,27.36889982733446
2,5, 1, 5, 0,15, 0.00,60.00,Thursday
8,84.08333333333333
9,898.6666666666666
10,26.031796676045257
11,26.031796676045257
12,28.197499697098575
147,27.83858239526566
148,25.354987356102345
2,5, 1, 5, 0,16, 0.00,60.00,Thursday
8,79.25
9,756.75
10,27.51710017145228
11,27.51710017145228
12,25.84391224224655
147,28.99625655289128
148,23.709724234989036
2,5, 1, 5, 0,17, 0.00,60.00,Thursday
8,55.25
9,553.25
10,28.849824940621943
11,28.849824940621943
12,23.915046143442677
147,29.897419515572192
148,22.509857419747686
2,5, 1, 5, 0,18, 0.00,60.00,Thursday
8,20.166666666666668
9,243.75
10,29.80664010124839
11,29.80664010124839
12,22.58993993462776
147,30.443620456407505
148,21.777994863200643
2,5, 1, 5, 0,19, 0.00,60.00,Thursday
8,0.0
9,0.0
10,30.35173301633847
11,30.35173301633847
12,21.829537958890743
147,30.568048763243482
148,21.560681834698087
2,5, 1, 5, 0,20, 0.00,60.00,Thursday
8,0.0
9,0.0
10,30.375994706702937
11,30.375994706702937
12,21.772691887824788
147,30.304786870796775
148,21.86204183698447
2,5, 1, 5, 0,21, 0.00,60.00,Thursday
8,0.0
9,0.0
10,29.986173421123876
11,29.986173421123876
12,22.265420265156077
147,29.790513917814597
148,22.517410855722698
2,5, 1, 5, 0,22, 0.00,60.00,Thursday
8,0.0
9,0.0
10,29.385290746763445
11,29.385290746763445
12,23.049653967971476
147,29.16895446721759
148,23.338984254463313
2,5, 1, 5, 0,23, 0.00,60.00,Thursday
8,0.0
9,0.0
10,28.586941459016696
11,28.586941459016696
12,24.13988685532452
147,28.38583678099447
148,24.423525839535273
2,5, 1, 5, 0,24, 0.00,60.00,Thursday
8,0.0
9,0.0
10,27.69267177865682
11,27.69267177865682
12,25.430071147147455
147,27.52179658833227
148,25.68469846862148
2,6, 1, 6, 0, 1, 0.00,60.00,Friday
8,0.0
9,0.0
10,26.862362770760786
11,26.862362770760786
12,26.697156781456254
147,26.744517101831935
148,26.882663401070207
2,6, 1, 6, 0, 2, 0.00,60.00,Friday
8,0.0
9,0.0
10,26.095436425289837
11,26.095436425289837
12,27.931611194969378
147,25.99012139327218
148,28.106109445903574
2,6, 1, 6, 0, 3, 0.00,60.00,Friday
8,0.0
9,0.0
10,25.358641573733607
11,25.358641573733607
12,29.178587370429558
147,25.250540829231877
148,29.366869583602092
2,6, 1, 6, 0, 4, 0.00,60.00,Friday
8,0.0
9,0.0
10,24.640408469034693
11,24.640408469034693
12,30.455081033503603
147,24.519745940561933
148,30.675713235274788
2,6, 1, 6, 0, 5, 0.00,60.00,Friday
8,0.0
9,0.0
10,23.920135172318293
11,23.920135172318293
12,31.79876819405383
147,23.793883726014382
148,32.04114566366746
2,6, 1, 6, 0, 6, 0.00,60.00,Friday
8,0.0
9,0.0
10,23.213270946841522
11,23.213270946841522
12,33.0695876413268
147,23.08517876491256
148,33.32668639358547
2,6, 1, 6, 0, 7, 0.00,60.00,Friday
8,0.0
9,0.0
10,22.529952402222253
11,22.529952402222253
12,34.44737465298132
147,22.404476676668825
148,34.711064150838986
2,6, 1, 6, 0, 8, 0.00,60.00,Friday
8,45.166666666666664
9,389.3333333333333
10,21.8952795107547
11,21.8952795107547
12,35.915847506122866
147,21.774848340432374
148,36.180918545630696
2,6, 1, 6, 0, 9, 0.00,60.00,Friday
8,85.08333333333333
9,669.9166666666666
10,21.411435259841777
11,21.411435259841777
12,37.007191643604635
147,21.35870558412988
148,37.12654018044904
2,6, 1, 6, 0,10, 0.00,60.00,Friday
8,94.16666666666667
9,843.9166666666666
10,21.289573674377927
11,21.289573674377927
12,37.33731920903683
147,21.46664115425551
148,36.93503797194176
2,6, 1, 6, 0,11, 0.00,60.00,Friday
8,94.41666666666667
9,934.4166666666666
10,21.614918574992686
11,21.614918574992686
12,36.6978370896529
147,22.209698164808177
148,35.39442272723966
2,6, 1, 6, 0,12, 0.00,60.00,Friday
8,95.83333333333333
9,966.0833333333334
10,22.26618789209839
11,22.26618789209839
12,35.22266630371773
147,23.551847452258283
148,32.59504361306841
2,6, 1, 6, 0,13, 0.00,60.00,Friday
8,95.5
9,969.0
10,23.29217723768042
11,23.29217723768042
12,33.14229539528986
147,25.061558923365073
148,29.80572441065352
2,6, 1, 6, 0,14, 0.00,60.00,Friday
8,92.08333333333333
9,950.5
10,24.64884327483031
11,24.64884327483031
12,30.61627866523217
147,26.411606588178277
148,27.572770662561307
2,6, 1, 6, 0,15, 0.00,60.00,Friday
8,84.75
9,904.25
10,25.960440228198667
11,25.960440228198667
12,28.31610849553456
147,27.5602487312924
148,25.770436305782827
2,6, 1, 6, 0,16, 0.00,60.00,Friday
8,72.08333333333333
9,808.0833333333334
10,27.212296456379594
11,27.212296456379594
12,26.304010269707643
147,28.505977014836674
148,24.389105021658434
2,6, 1, 6, 0,17, 0.00,60.00,Friday
8,48.416666666666664
9,606.1666666666667
10,28.29035316863631
11,28.29035316863631
12,24.681844677501743
147,29.2013112460628
148,23.410505879368504
2,6, 1, 6, 0,18, 0.00,60.00,Friday
8,18.75
9,257.1666666666667
10,29.062645716015453
11,29.062645716015453
12,23.558417201591052
147,29.604844786514878
148,22.831649549554573
2,6, 1, 6, 0,19, 0.00,60.00,Friday
8,1.1666666666666665
9,14.999999999999998
10,29.520685704525146
11,29.520685704525146
12,22.910676542198416
147,29.65778144823463
148,22.73032464543832
2,6, 1, 6, 0,20, 0.00,60.00,Friday
8,0.0
9,0.0
10,29.533171136663587
11,29.533171136663587
12,22.871272850882544
147,29.380033245109146
148,23.074445209915893
2,6, 1, 6, 0,21, 0.00,60.00,Friday
8,0.0
9,0.0
10,29.176249458098557
11,29.176249458098557
12,23.338092193416603
147,28.896858324897504
148,23.718322490398393
2,6, 1, 6, 0,22, 0.00,60.00,Friday
8,0.0
9,0.0
10,28.52439074716473
11,28.52439074716473
12,24.23706464487445
147,28.2587673358711
148,24.61405628390509
2,6, 1, 6, 0,23, 0.00,60.00,Friday
8,0.0
9,0.0
10,27.684262988527937
11,27.684262988527937
12,25.45326682244257
147,27.410070639815842
148,25.864613940115376
2,6, 1, 6, 0,24, 0.00,60.00,Friday
8,0.0
9,0.0
10,26.7730978259743
11,26.7730978259743
12,26.849365970762904
147,26.568877095995607
148,27.17358809936889
2,7, 1, 7, 0, 1, 0.00,60.00,Saturday
8,0.0
9,0.0
10,25.93247119503401
11,25.93247119503401
12,28.214311400530935
147,25.767103853139485
148,28.491865789741652
2,7, 1, 7, 0, 2, 0.00,60.00,Saturday
8,0.0
9,0.0
10,25.137610462322183
11,25.137610462322183
12,29.57745963119724
147,24.985722603629423
148,29.84633017012385
2,7, 1, 7, 0, 3, 0.00,60.00,Saturday
8,0.0
9,0.0
10,24.381137455021545
11,24.381137455021545
12,30.94416295215639
147,24.226329967144423
148,31.232697536835165
2,7, 1, 7, 0, 4, 0.00,60.00,Saturday
8,0.0
9,0.0
10,23.65015950089239
11,23.65015950089239
12,32.33297987745943
147,23.48315293531397
148,32.66012372706499
2,7, 1, 7, 0, 5, 0.00,60.00,Saturday
8,0.0
9,0.0
10,22.932009405119526
11,22.932009405119526
12,33.714768785104006
147,22.761937538200346
148,34.06404915422383
2,7, 1, 7, 0, 6, 0.00,60.00,Saturday
8,0.0
9,0.0
10,22.22921570426296
11,22.22921570426296
12,35.146959802857886
147,22.063381793051573
148,35.503852837460144
2,7, 1, 7, 0, 7, 0.00,60.00,Saturday
8,0.0
9,0.0
10,21.54413661267877
11,21.54413661267877
12,36.64801810138035
147,21.38434060783688
148,37.008414424475625
2,7, 1, 7, 0, 8, 0.00,60.00,Saturday
8,47.72222222222223
9,381.27777777777777
10,20.87601978621932
11,20.87601978621932
12,38.22831314465815
147,20.724839027640552
148,38.58565642138445
2,7, 1, 7, 0, 9, 0.00,60.00,Saturday
8,85.58333333333333
9,679.1666666666666
10,20.32349335716258
11,20.32349335716258
12,39.58750172184107
147,20.243676500604085
148,39.78258488817793
2,7, 1, 7, 0,10, 0.00,60.00,Saturday
8,95.91666666666667
9,847.0833333333334
10,20.125763673641444
11,20.125763673641444
12,40.119647258569195
147,20.280587029065533
148,39.73794714461383
2,7, 1, 7, 0,11, 0.00,60.00,Saturday
8,100.33333333333333
9,925.3333333333334
10,20.39985191053373
11,20.39985191053373
12,39.5241295622567
147,20.974298648781243
148,38.15488903690013
2,7, 1, 7, 0,12, 0.00,60.00,Saturday
8,105.5
9,950.9166666666666
10,21.092724631789434
11,21.092724631789434
12,37.879407384218446
147,22.334395342064013
148,35.12325178102144
2,7, 1, 7, 0,13, 0.00,60.00,Saturday
8,115.25
9,934.5
10,22.1529038207215
11,22.1529038207215
12,35.534304242487146
147,23.947776290751875
148,31.87902851845887
2,7, 1, 7, 0,14, 0.00,60.00,Saturday
8,121.75
9,888.75
10,23.58001483961147
11,23.58001483961147
12,32.63069411037525
147,25.375475466359656
148,29.304723733072965
2,7, 1, 7, 0,15, 0.00,60.00,Saturday
8,121.0
9,807.1666666666666
10,25.019980115776637
11,25.019980115776637
12,29.823058380503255
147,26.655990459315017
148,27.065242438643654
2,7, 1, 7, 0,16, 0.00,60.00,Saturday
8,101.25
9,705.8333333333334
10,26.461306609856056
11,26.461306609856056
12,27.41526842446822
147,27.78573525210474
148,25.36257037229909
2,7, 1, 7, 0,17, 0.00,60.00,Saturday
8,60.25
9,553.4166666666666
10,27.73930373820575
11,27.73930373820575
12,25.496037840574576
147,28.660905312152483
148,24.161772834787456
2,7, 1, 7, 0,18, 0.00,60.00,Saturday
8,20.500000000000004
9,246.5
10,28.687509954463184
11,28.687509954463184
12,23.95930049502716
147,29.21641296955322
148,23.23507383773047
2,7, 1, 7, 0,19, 0.00,60.00,Saturday
8,1.222222222222222
9,14.555555555555552
10,29.24140402057776
11,29.24140402057776
12,23.204293051674032
147,29.35182422376211
148,23.056936174525337
2,7, 1, 7, 0,20, 0.00,60.00,Saturday
8,0.0
9,0.0
10,29.27849241340708
11,29.27849241340708
12,23.221063952849544
147,29.09938836900811
148,23.462907731077962
2,7, 1, 7, 0,21, 0.00,60.00,Saturday
8,0.0
9,0.0
10,28.92413844309344
11,28.92413844309344
12,23.68530445039751
147,28.618966145774376
148,24.108086122422947
2,7, 1, 7, 0,22, 0.00,60.00,Saturday
8,0.0
9,0.0
10,28.34321769356535
11,28.34321769356535
12,24.49288410433933
147,28.042004413769472
148,24.925675543868824
2,7, 1, 7, 0,23, 0.00,60.00,Saturday
8,0.0
9,0.0
10,27.578597078918687
11,27.578597078918687
12,25.602312472597543
147,27.294321844994375
148,26.03188866871353
2,7, 1, 7, 0,24, 0.00,60.00,Saturday
8,0.0
9,0.0
10,26.73174765478325
11,26.73174765478325
12,26.78577368369385
147,26.47804567133609
148,27.18841872845935
2,8, 1, 8, 0, 1, 0.00,60.00,Sunday
8,0.0
9,0.0
10,25.92671687349151
11,25.92671687349151
12,28.012273862912384
147,25.737688756382813
148,28.32749689158886
2,8, 1, 8, 0, 2, 0.00,60.00,Sunday
8,0.0
9,0.0
10,25.18306666781693
11,25.18306666781693
12,29.29181732356237
147,25.01641897827007
148,29.58395880870684
2,8, 1, 8, 0, 3, 0.00,60.00,Sunday
8,0.0
9,0.0
10,24.46790175462156
11,24.46790175462156
12,30.585275607876255
147,24.308832891365345
148,30.87804761133407
2,8, 1, 8, 0, 4, 0.00,60.00,Sunday
8,0.0
9,0.0
10,23.766526429402997
11,23.766526429402997
12,31.91681392111717
147,23.603149134020924
148,32.23244838294204
2,8, 1, 8, 0, 5, 0.00,60.00,Sunday
8,0.0
9,0.0