Program Version,EnergyPlus, Version 25.2.0-cf7368216c, YMD=2026.03.17 01:03
1,5,Environment Title[],Latitude[deg],Longitude[deg],Time Zone[],Elevation[m]
2,8,Day of Simulation[],Month[],Day of Month[],DST Indicator[1=yes 0=no],Hour[],StartMinute[],EndMinute[],DayType
3,5,Cumulative Day of Simulation[],Month[],Day of Month[],DST Indicator[1=yes 0=no],DayType  ! When Daily Report Variables Requested
4,2,Cumulative Days of Simulation[],Month[]  ! When Monthly Report Variables Requested
5,1,Cumulative Days of Simulation[] ! When Run Period Report Variables Requested
6,1,Calendar Year of Simulation[] ! When Annual Report Variables Requested
7,9,Environment,Site Outdoor Air Drybulb Temperature [C] !Monthly [Value,Min,Day,Hour,Minute,Max,Day,Hour,Minute]
8,1,Environment,Site Diffuse Solar Radiation Rate per Area [W/m2] !Hourly
9,1,Environment,Site Direct Solar Radiation Rate per Area [W/m2] !Hourly
10,1,ESTE,Zone Air Temperature [C] !Hourly
11,1,ESTE,Zone Air Relative Humidity [%] !Hourly
146,1,OESTE,Zone Air Temperature [C] !Hourly
147,1,OESTE,Zone Air Relative Humidity [%] !Hourly
End of Data Dictionary
1,RUN PERIOD 1,  18.84, -99.26,  -6.00,1303.60
2,1, 1, 1, 0, 1, 0.00,60.00,Sunday
8,0.0
9,0.0
10,25.285324400236536
11,29.21781358268367
146,25.351451277459745
147,29.103107565957544
2,1, 1, 1, 0, 2, 0.00,60.00,Sunday
8,0.0
9,0.0
10,24.565906961541174
11,30.4027190622726
146,24.627710299883578
147,30.29065118408703
2,1, 1, 1, 0, 3, 0.00,60.00,Sunday
8,0.0
9,0.0
10,23.89900906364679
11,31.642846879212893
146,23.941853765298493
147,31.56160379202359
2,1, 1, 1, 0, 4, 0.00,60.00,Sunday
8,0.0
9,0.0
10,23.268712064197118
11,32.86765246593142
146,23.296898538987715
147,32.81181624078331
2,1, 1, 1, 0, 5, 0.00,60.00,Sunday
8,0.0
9,0.0
10,22.66940869134582
11,34.19318792521262
146,22.688070985060516
147,34.15455523077937
2,1, 1, 1, 0, 6, 0.00,60.00,Sunday
8,0.0
9,0.0
10,22.089875251907696
11,35.490375029343106
146,22.102208790450803
147,35.463734949491986
2,1, 1, 1, 0, 7, 0.00,60.00,Sunday
8,0.0
9,0.0
10,21.51926807215432
11,36.730270588504496
146,21.527640726707677
147,36.711470630780724
2,1, 1, 1, 0, 8, 0.00,60.00,Sunday
8,38.19444444444445
9,448.1944444444444
10,20.951875883306673
11,38.04640395500203
146,20.959029907402762
147,38.029638835925525
2,1, 1, 1, 0, 9, 0.00,60.00,Sunday
8,71.58333333333333
9,720.1666666666666
10,20.478219385436013
11,39.23492796726892
146,20.55433879598363
147,39.050485627953634
2,1, 1, 1, 0,10, 0.00,60.00,Sunday
8,85.75
9,844.25
10,20.336059670318793
11,39.63646463708795
146,20.65484867047654
147,38.86545045729331
2,1, 1, 1, 0,11, 0.00,60.00,Sunday
8,95.75
9,901.4166666666666
10,20.65214611019789
11,38.90007733450356
146,21.435319309060276
147,37.07824007045695
2,1, 1, 1, 0,12, 0.00,60.00,Sunday
8,102.16666666666667
9,917.6666666666666
10,21.320689556181026
11,37.374546237110756
146,22.79705552334939
147,34.16779683555327
2,1, 1, 1, 0,13, 0.00,60.00,Sunday
8,123.25
9,837.5833333333334
10,22.332681996021506
11,35.18171450039032
146,24.200839527339983
147,31.42678668788687
2,1, 1, 1, 0,14, 0.00,60.00,Sunday
8,166.75
9,670.9166666666666
10,23.6755453531338
11,32.44008690210679
146,25.477445959080914
147,29.124395512542876
2,1, 1, 1, 0,15, 0.00,60.00,Sunday
8,158.75
9,602.1666666666666
10,25.005838832447495
11,29.947812507034772
146,26.646223489002626
147,27.172005429559118
2,1, 1, 1, 0,16, 0.00,60.00,Sunday
8,103.58333333333333
9,517.8333333333334
10,26.264450994988078
11,27.792052973324207
146,27.62541811025721
147,25.65379272267845
2,1, 1, 1, 0,17, 0.00,60.00,Sunday
8,56.666666666666664
9,349.0833333333333
10,27.371287198267922
11,26.024129959545263
146,28.37858385012956
147,24.53688961640651
2,1, 1, 1, 0,18, 0.00,60.00,Sunday
8,17.75
9,156.66666666666666
10,28.11548463162737
11,24.890979677179264
146,28.79839402972343
147,23.922174704230518
2,1, 1, 1, 0,19, 0.00,60.00,Sunday
8,0.0
9,0.0
10,28.50112184615415
11,24.307446985829248
146,28.863917395681245
147,23.80135455957772
2,1, 1, 1, 0,20, 0.00,60.00,Sunday
8,0.0
9,0.0
10,28.498770921061976
11,24.295870845461753
146,28.636764955122757
147,24.102404912301907
2,1, 1, 1, 0,21, 0.00,60.00,Sunday
8,0.0
9,0.0
10,28.183149322967225
11,24.746220257038104
146,28.22114634265724
147,24.691756738888714
2,1, 1, 1, 0,22, 0.00,60.00,Sunday
8,0.0
9,0.0
10,27.669328190629873
11,25.49978236714988
146,27.700543449133395
147,25.45318137022112
2,1, 1, 1, 0,23, 0.00,60.00,Sunday
8,0.0
9,0.0
10,26.94265946065204
11,26.609776497705898
146,26.974324359404577
147,26.560437921048706
2,1, 1, 1, 0,24, 0.00,60.00,Sunday
8,0.0
9,0.0
10,26.103537148012396
11,27.958898485683488
146,26.142557748166638
147,27.89403302164038
2,2, 1, 2, 0, 1, 0.00,60.00,Monday
8,0.0
9,0.0
10,25.320464085004673
11,29.287006540867903
146,25.386884229608984
147,29.171549784781146
2,2, 1, 2, 0, 2, 0.00,60.00,Monday
8,0.0
9,0.0
10,24.592257528194818
11,30.58663000665283
146,24.65372638912699
147,30.47452551582066
2,2, 1, 2, 0, 3, 0.00,60.00,Monday
8,0.0
9,0.0
10,23.89387131663086
11,31.894499362553486
146,23.93471781968094
147,31.816446055609465
2,2, 1, 2, 0, 4, 0.00,60.00,Monday
8,0.0
9,0.0
10,23.20612413474393
11,33.244465893096454
146,23.230565466389702
147,33.19549847559864
2,2, 1, 2, 0, 5, 0.00,60.00,Monday
8,0.0
9,0.0
10,22.524777486459868
11,34.593543104968354
146,22.537588003088715
147,34.56670616177342
2,2, 1, 2, 0, 6, 0.00,60.00,Monday
8,0.0
9,0.0
10,21.84796461334089
11,36.000175678100796
146,21.853489017734645
147,35.98808262027468
2,2, 1, 2, 0, 7, 0.00,60.00,Monday
8,0.0
9,0.0
10,21.191096775126148
11,37.45763746166644
146,21.191751802849183
147,37.45616176130272
2,2, 1, 2, 0, 8, 0.00,60.00,Monday
8,37.416666666666664
9,442.0833333333333
10,20.56040962814592
11,38.97845706802952
146,20.559781814264877
147,38.979927418074915
2,2, 1, 2, 0, 9, 0.00,60.00,Monday
8,74.5
9,695.5833333333334
10,20.05836122908263
11,40.22121038027859
146,20.12862463293645
147,40.04608390883737
2,2, 1, 2, 0,10, 0.00,60.00,Monday
8,89.25
9,832.5
10,19.916769235239702
11,40.65120289367926
146,20.22839802520074
147,39.87526411977398
2,2, 1, 2, 0,11, 0.00,60.00,Monday
8,93.41666666666667
9,914.4166666666666
10,20.229867568851372
11,39.95826214996071
146,20.982871791663822
147,38.15134530721105
2,2, 1, 2, 0,12, 0.00,60.00,Monday
8,96.5
9,943.8333333333334
10,20.904817804992575
11,38.30075033749009
146,22.370592871662225
147,35.029198999243185
2,2, 1, 2, 0,13, 0.00,60.00,Monday
8,96.25
9,946.75
10,21.987129925755635
11,35.89311942574896
146,23.93051285085484
147,31.90937637218956
2,2, 1, 2, 0,14, 0.00,60.00,Monday
8,98.58333333333333
9,905.5
10,23.441292503939522
11,32.9211933648621
146,25.371914155386623
147,29.32549746266294
2,2, 1, 2, 0,15, 0.00,60.00,Monday
8,105.16666666666667
9,783.25
10,24.918587083346967
11,30.134898576776497
146,26.695334792115144
147,27.120816278061607
2,2, 1, 2, 0,16, 0.00,60.00,Monday
8,94.83333333333333
9,629.5833333333334
10,26.347627631452415
11,27.67652172874297
146,27.816973758080593
147,25.386486181148115
2,2, 1, 2, 0,17, 0.00,60.00,Monday
8,57.166666666666664
9,453.25
10,27.589836138918642
11,25.706710792018313
146,28.660289915768885
147,24.150789519408416
2,2, 1, 2, 0,18, 0.00,60.00,Monday
8,18.583333333333332
9,189.25
10,28.42364786153166
11,24.45408147012823
146,29.128535693501608
147,23.47438910068223
2,2, 1, 2, 0,19, 0.00,60.00,Monday
8,0.0
9,0.0
10,28.869286320427587
11,23.787539224646366
146,29.21845287896109
147,23.31186456366841
2,2, 1, 2, 0,20, 0.00,60.00,Monday
8,0.0
9,0.0
10,28.8895045498069
11,23.74029186442293
146,28.987184728618473
147,23.60680964350512
2,2, 1, 2, 0,21, 0.00,60.00,Monday
8,0.0
9,0.0
10,28.57179906187352
11,24.18197863378421
146,28.56386595009414
147,24.193312242268515
2,2, 1, 2, 0,22, 0.00,60.00,Monday
8,0.0
9,0.0
10,28.087527590038615
11,24.873005376996264
146,28.0498497685314
147,24.927536217656357
2,2, 1, 2, 0,23, 0.00,60.00,Monday
8,0.0
9,0.0
10,27.403210119873126
11,25.888002343848044
146,27.382225478092323
147,25.919868058758777
2,2, 1, 2, 0,24, 0.00,60.00,Monday
8,0.0
9,0.0
10,26.58442532939807
11,27.163518715507944
146,26.561044677040552
147,27.20069685774079
2,3, 1, 3, 0, 1, 0.00,60.00,Tuesday
8,0.0
9,0.0
10,25.80401512699255
11,28.444441912902416
146,25.82224710213266
147,28.413652292752477
2,3, 1, 3, 0, 2, 0.00,60.00,Tuesday
8,0.0
9,0.0
10,25.10262821876037
11,29.654485636901015
146,25.123823676081944
147,29.6171073459977
2,3, 1, 3, 0, 3, 0.00,60.00,Tuesday
8,0.0
9,0.0
10,24.438106188345994
11,30.854757207893766
146,24.446171893901504
147,30.840000692370676
2,3, 1, 3, 0, 4, 0.00,60.00,Tuesday
8,0.0
9,0.0
10,23.79435946658934
11,32.070177227886525
146,23.78585540727123
147,32.086671704425264
2,3, 1, 3, 0, 5, 0.00,60.00,Tuesday
8,0.0
9,0.0
10,23.15362327802806
11,33.35080297743935
146,23.135205899077604
147,33.388025638626964
2,3, 1, 3, 0, 6, 0.00,60.00,Tuesday
8,0.0
9,0.0
10,22.518916927641573
11,34.630413214736805
146,22.493603233274886
147,34.68374413941441
2,3, 1, 3, 0, 7, 0.00,60.00,Tuesday
8,0.0
9,0.0
10,21.896954073594625
11,35.89524651005507
146,21.86894670336689
147,35.956692562574
2,3, 1, 3, 0, 8, 0.00,60.00,Tuesday
8,36.583333333333336
9,459.4166666666667
10,21.295749500470546
11,37.209289860988314
146,21.267592920658306
147,37.27356585995158
2,3, 1, 3, 0, 9, 0.00,60.00,Tuesday
8,70.08333333333333
9,726.0
10,20.812613544385943
11,38.359875218714954
146,20.857341721131466
147,38.25383636328401
2,3, 1, 3, 0,10, 0.00,60.00,Tuesday
8,86.16666666666667
9,845.25
10,20.687642076020655
11,38.71625830883692
146,20.98261324525937
147,38.02087852860062
2,3, 1, 3, 0,11, 0.00,60.00,Tuesday
8,95.08333333333333
9,903.5
10,21.020191996208677
11,37.994010395205656
146,21.791912969475998
147,36.24502930703933
2,3, 1, 3, 0,12, 0.00,60.00,Tuesday
8,100.25
9,926.6666666666666
10,21.673904295068002
11,36.501748866511285
146,23.18806801318998
147,33.30337717733672
2,3, 1, 3, 0,13, 0.00,60.00,Tuesday
8,104.16666666666667
9,911.75
10,22.701041903984976
11,34.330082276190566
146,24.670869520256247
147,30.490972611136424
2,3, 1, 3, 0,14, 0.00,60.00,Tuesday
8,108.91666666666667
9,822.4166666666666
10,24.070307106207007
11,31.66009473698357
146,26.033914573505502
147,28.162932616504705
2,3, 1, 3, 0,15, 0.00,60.00,Tuesday
8,117.58333333333333
9,638.9166666666666
10,25.444541059218114
11,29.184891982708777
146,27.262587616818564
147,26.213672594075103
2,3, 1, 3, 0,16, 0.00,60.00,Tuesday
8,104.66666666666667
9,540.0833333333334
10,26.74694609668334
11,27.025930393607755
146,28.274436505278242
147,24.71310127381209
2,3, 1, 3, 0,17, 0.00,60.00,Tuesday
8,60.5
9,478.5833333333333
10,27.881233235554458
11,25.279644553317862
146,29.031591299409055
147,23.643504486233084
2,3, 1, 3, 0,18, 0.00,60.00,Tuesday
8,19.583333333333332
9,219.41666666666666
10,28.732186751131422
11,24.038753828613327
146,29.511549002693396
147,22.97898637835064
2,3, 1, 3, 0,19, 0.00,60.00,Tuesday
8,0.0
9,0.0
10,29.22280900541287
11,23.342433082831565
146,29.63781835178165
147,22.79023352298097
2,3, 1, 3, 0,20, 0.00,60.00,Tuesday
8,0.0
9,0.0
10,29.30176961760505
11,23.22668357399178
146,29.4410477595949
147,23.041142472862607
2,3, 1, 3, 0,21, 0.00,60.00,Tuesday
8,0.0
9,0.0
10,29.037496292860208
11,23.584424136955477
146,29.05138203672232
147,23.565704213772477
2,3, 1, 3, 0,22, 0.00,60.00,Tuesday
8,0.0
9,0.0
10,28.564543406879764
11,24.240286225655556
146,28.552811352509593
147,24.25662320393126
2,3, 1, 3, 0,23, 0.00,60.00,Tuesday
8,0.0
9,0.0
10,27.854324807447963
11,25.264027369902532
146,27.855478429315266
147,25.262387651630295
2,3, 1, 3, 0,24, 0.00,60.00,Tuesday
8,0.0
9,0.0
10,27.017584191994093
11,26.53229272871137
146,27.016059981856543
147,26.53434877892475
2,4, 1, 4, 0, 1, 0.00,60.00,Wednesday
8,0.0
9,0.0
10,26.23543529014613
11,27.78208523978304
146,26.27406610648111
147,27.7187188942122
2,4, 1, 4, 0, 2, 0.00,60.00,Wednesday
8,0.0
9,0.0
10,25.524581733811832
11,28.976341625282334
146,25.564001254577477
147,28.90865770995548
2,4, 1, 4, 0, 3, 0.00,60.00,Wednesday
8,0.0
9,0.0
10,24.84294574911583
11,30.176180429750147
146,24.866772998949145
147,30.13345555271791
2,4, 1, 4, 0, 4, 0.00,60.00,Wednesday
8,0.0
9,0.0
10,24.17349742804244
11,31.409584152174897
146,24.179422327882595
147,31.398514176413645
2,4, 1, 4, 0, 5, 0.00,60.00,Wednesday
8,0.0
9,0.0
10,23.50021194902955
11,32.70766561206151
146,23.494749750690534
147,32.718516281494864
2,4, 1, 4, 0, 6, 0.00,60.00,Wednesday
8,0.0
9,0.0
10,22.82737788560898
11,33.974553276874595
146,22.814021780846147
147,34.00210136186075
2,4, 1, 4, 0, 7, 0.00,60.00,Wednesday
8,0.0
9,0.0
10,22.16187219194965
11,35.30976882815323
146,22.144109175283223
147,35.34803234442507
2,4, 1, 4, 0, 8, 0.00,60.00,Wednesday
8,36.111111111111114
9,464.3888888888889
10,21.523605238986548
11,36.71301441265073
146,21.50477381835098
147,36.75532846619904
2,4, 1, 4, 0, 9, 0.00,60.00,Wednesday
8,70.75
9,728.8333333333334
10,21.021351965560275
11,37.89389226142024
146,21.077220782055065
147,37.76341828468476
2,4, 1, 4, 0,10, 0.00,60.00,Wednesday
8,86.08333333333333
9,846.8333333333334
10,20.88295290342904
11,38.2755021115371
146,21.19268637615851
147,37.55487796111421
2,4, 1, 4, 0,11, 0.00,60.00,Wednesday
8,94.66666666666667
9,910.3333333333334
10,21.2001040471948
11,37.58449567770488
146,21.979407784237214
147,35.840162120045484
2,4, 1, 4, 0,12, 0.00,60.00,Wednesday
8,101.5
9,933.5833333333334
10,21.876739558434522
11,36.096713486962535
146,23.400517489968156
147,32.919620755342905
2,4, 1, 4, 0,13, 0.00,60.00,Wednesday
8,102.25
9,935.25
10,22.94084221584858
11,33.86566903192311
146,24.936832315727912
147,30.038258082338544
2,4, 1, 4, 0,14, 0.00,60.00,Wednesday
8,98.0
9,914.9166666666666
10,24.363315142867886
11,31.100694031168015
146,26.35564231291814
147,27.62564690095729
2,4, 1, 4, 0,15, 0.00,60.00,Wednesday
8,89.33333333333333
9,850.6666666666666
10,25.800346082370506
11,28.562569210812967
146,27.643270367445734
147,25.62455391490556
2,4, 1, 4, 0,16, 0.00,60.00,Wednesday
8,74.16666666666667
9,723.3333333333334
10,27.22390693123353
11,26.26843959540496
146,28.751512224308943
147,24.02730634286385
2,4, 1, 4, 0,17, 0.00,60.00,Wednesday
8,49.333333333333336
9,531.4166666666666
10,28.489642383577486
11,24.39607075412957
146,29.59451177807288
147,22.88347232672645
2,4, 1, 4, 0,18, 0.00,60.00,Wednesday
8,18.666666666666668
9,230.66666666666666
10,29.381888796047388
11,23.155844999344342
146,30.082266795663127
147,22.240288996335195
2,4, 1, 4, 0,19, 0.00,60.00,Wednesday
8,0.0
9,0.0
10,29.87253418409686
11,22.493362343140877
146,30.178609689211346
147,22.10139307274058
2,4, 1, 4, 0,20, 0.00,60.00,Wednesday
8,0.0
9,0.0
10,29.93514242586235
11,22.405541418445353
146,29.959944009751585
147,22.37395562834588
2,4, 1, 4, 0,21, 0.00,60.00,Wednesday
8,0.0
9,0.0
10,29.656456058754333
11,22.76788623506801
146,29.55135656627249
147,22.906319406479856
2,4, 1, 4, 0,22, 0.00,60.00,Wednesday
8,0.0
9,0.0
10,29.17439832072941
11,23.4103213354791
146,29.029382181459173
147,23.607211255540445
2,4, 1, 4, 0,23, 0.00,60.00,Wednesday
8,0.0
9,0.0
10,28.457672682612113
11,24.403684000999377
146,28.333437598605112
147,24.580530984382076
2,4, 1, 4, 0,24, 0.00,60.00,Wednesday
8,0.0
9,0.0
10,27.583388656713435
11,25.67970148615366
146,27.466399316843084
147,25.85556261210799
2,5, 1, 5, 0, 1, 0.00,60.00,Thursday
8,0.0
9,0.0
10,26.73311063796983
11,26.991968324120034
146,26.67193269442467
147,27.089181300790756
2,5, 1, 5, 0, 2, 0.00,60.00,Thursday
8,0.0
9,0.0
10,25.961301528831882
11,28.249428451590873
146,25.91070501118253
147,28.334156436520388
2,5, 1, 5, 0, 3, 0.00,60.00,Thursday
8,0.0
9,0.0
10,25.2225895045985
11,29.515264776360596
146,25.1645851866826
147,29.617469708156197
2,5, 1, 5, 0, 4, 0.00,60.00,Thursday
8,0.0
9,0.0
10,24.503051613440118
11,30.810240373054125
146,24.429497140626083
147,30.946264853546506
2,5, 1, 5, 0, 5, 0.00,60.00,Thursday
8,0.0
9,0.0
10,23.78437679590371
11,32.1679780456983
146,23.703447441443135
147,32.325097002198305
2,5, 1, 5, 0, 6, 0.00,60.00,Thursday
8,0.0
9,0.0
10,23.072177904479403
11,33.47122934772583
146,22.987728878336373
147,33.642724595602346
2,5, 1, 5, 0, 7, 0.00,60.00,Thursday
8,0.0
9,0.0
10,22.384785874282954
11,34.82651124047317
146,22.300810908713355
147,35.00488380594016
2,5, 1, 5, 0, 8, 0.00,60.00,Thursday
8,34.97222222222222
9,483.25
10,21.741740456965843
11,36.23742393307611
146,21.661106108086216
147,36.41643534099387
2,5, 1, 5, 0, 9, 0.00,60.00,Thursday
8,68.08333333333333
9,753.0
10,21.222015549117277
11,37.48323439930572
146,21.221651792087332
147,37.48332770915602
2,5, 1, 5, 0,10, 0.00,60.00,Thursday
8,84.0
9,867.1666666666666
10,21.05216873719159
11,37.9228187760169
146,21.311642026212667
147,37.3246018631459
2,5, 1, 5, 0,11, 0.00,60.00,Thursday
8,91.83333333333333
9,927.3333333333334
10,21.355145256581206
11,37.25749467138771
146,22.087651407429792
147,35.63178247079899
2,5, 1, 5, 0,12, 0.00,60.00,Thursday
8,94.25
9,959.5
10,22.045953507272127
11,35.75048691526131
146,23.50910310975972
147,32.727074959626506
2,5, 1, 5, 0,13, 0.00,60.00,Thursday
8,91.41666666666667
9,975.4166666666666
10,23.11601996228258
11,33.52936832952256
146,25.1060395774258
147,29.755397932526378
2,5, 1, 5, 0,14, 0.00,60.00,Thursday
8,86.91666666666667
9,963.5
10,24.5555530031439
11,30.771573870669386
146,26.528569005594736
147,27.36889982733446
2,5, 1, 5, 0,15, 0.00,60.00,Thursday
8,84.08333333333333
9,898.6666666666666
10,26.031796676045257
11,28.197499697098575
146,27.83858239526566
147,25.354987356102345
2,5, 1, 5, 0,16, 0.00,60.00,Thursday
8,79.25
9,756.75
10,27.51710017145228
11,25.84391224224655
146,28.99625655289128
147,23.709724234989036
2,5, 1, 5, 0,17, 0.00,60.00,Thursday
8,55.25
9,553.25
10,28.849824940621943
11,23.915046143442677
146,29.897419515572192
147,22.509857419747686
2,5, 1, 5, 0,18, 0.00,60.00,Thursday
8,20.166666666666668
9,243.75
10,29.80664010124839
11,22.58993993462776
146,30.443620456407505
147,21.777994863200643
2,5, 1, 5, 0,19, 0.00,60.00,Thursday
8,0.0
9,0.0
10,30.35173301633847
11,21.829537958890743
146,30.568048763243482
147,21.560681834698087
2,5, 1, 5, 0,20, 0.00,60.00,Thursday
8,0.0
9,0.0
10,30.375994706702937
11,21.772691887824788
146,30.304786870796775
147,21.86204183698447
2,5, 1, 5, 0,21, 0.00,60.00,Thursday
8,0.0
9,0.0
10,29.986173421123876
11,22.265420265156077
146,29.790513917814597
147,22.517410855722698
2,5, 1, 5, 0,22, 0.00,60.00,Thursday
8,0.0
9,0.0
10,29.385290746763445
11,23.049653967971476
146,29.16895446721759
147,23.338984254463313
2,5, 1, 5, 0,23, 0.00,60.00,Thursday
8,0.0
9,0.0
10,28.586941459016696
11,24.13988685532452
146,28.38583678099447
147,24.423525839535273
2,5, 1, 5, 0,24, 0.00,60.00,Thursday
8,0.0
9,0.0
10,27.69267177865682
11,25.430071147147455
146,27.52179658833227
147,25.68469846862148
2,6, 1, 6, 0, 1, 0.00,60.00,Friday
8,0.0
9,0.0
10,26.862362770760786
11,26.697156781456254
146,26.744517101831935
147,26.882663401070207
2,6, 1, 6, 0, 2, 0.00,60.00,Friday
8,0.0
9,0.0
10,26.095436425289837
11,27.931611194969378
146,25.99012139327218
147,28.106109445903574
2,6, 1, 6, 0, 3, 0.00,60.00,Friday
8,0.0
9,0.0
10,25.358641573733607
11,29.178587370429558
146,25.250540829231877
147,29.366869583602092
2,6, 1, 6, 0, 4, 0.00,60.00,Friday
8,0.0
9,0.0
10,24.640408469034693
11,30.455081033503603
146,24.519745940561933
147,30.675713235274788
2,6, 1, 6, 0, 5, 0.00,60.00,Friday
8,0.0
9,0.0
10,23.920135172318293
11,31.79876819405383
146,23.793883726014382
147,32.04114566366746
2,6, 1, 6, 0, 6, 0.00,60.00,Friday
8,0.0
9,0.0
10,23.213270946841522
11,33.0695876413268
146,23.08517876491256
147,33.32668639358547
2,6, 1, 6, 0, 7, 0.00,60.00,Friday
8,0.0
9,0.0
10,22.529952402222253
11,34.44737465298132
146,22.404476676668825
147,34.711064150838986
2,6, 1, 6, 0, 8, 0.00,60.00,Friday
8,45.166666666666664
9,389.3333333333333
10,21.8952795107547
11,35.915847506122866
146,21.774848340432374
147,36.180918545630696
2,6, 1, 6, 0, 9, 0.00,60.00,Friday
8,85.08333333333333
9,669.9166666666666
10,21.411435259841777
11,37.007191643604635
146,21.35870558412988
147,37.12654018044904
2,6, 1, 6, 0,10, 0.00,60.00,Friday
8,94.16666666666667
9,843.9166666666666
10,21.289573674377927
11,37.33731920903683
146,21.46664115425551
147,36.93503797194176
2,6, 1, 6, 0,11, 0.00,60.00,Friday
8,94.41666666666667
9,934.4166666666666
10,21.614918574992686
11,36.6978370896529
146,22.209698164808177
147,35.39442272723966
2,6, 1, 6, 0,12, 0.00,60.00,Friday
8,95.83333333333333
9,966.0833333333334
10,22.26618789209839
11,35.22266630371773
146,23.551847452258283
147,32.59504361306841
2,6, 1, 6, 0,13, 0.00,60.00,Friday
8,95.5
9,969.0
10,23.29217723768042
11,33.14229539528986
146,25.061558923365073
147,29.80572441065352
2,6, 1, 6, 0,14, 0.00,60.00,Friday
8,92.08333333333333
9,950.5
10,24.64884327483031
11,30.61627866523217
146,26.411606588178277
147,27.572770662561307
2,6, 1, 6, 0,15, 0.00,60.00,Friday
8,84.75
9,904.25
10,25.960440228198667
11,28.31610849553456
146,27.5602487312924
147,25.770436305782827
2,6, 1, 6, 0,16, 0.00,60.00,Friday
8,72.08333333333333
9,808.0833333333334
10,27.212296456379594
11,26.304010269707643
146,28.505977014836674
147,24.389105021658434
2,6, 1, 6, 0,17, 0.00,60.00,Friday
8,48.416666666666664
9,606.1666666666667
10,28.29035316863631
11,24.681844677501743
146,29.2013112460628
147,23.410505879368504
2,6, 1, 6, 0,18, 0.00,60.00,Friday
8,18.75
9,257.1666666666667
10,29.062645716015453
11,23.558417201591052
146,29.604844786514878
147,22.831649549554573
2,6, 1, 6, 0,19, 0.00,60.00,Friday
8,1.1666666666666665
9,14.999999999999998
10,29.520685704525146
11,22.910676542198416
146,29.65778144823463
147,22.73032464543832
2,6, 1, 6, 0,20, 0.00,60.00,Friday
8,0.0
9,0.0
10,29.533171136663587
11,22.871272850882544
146,29.380033245109146
147,23.074445209915893
2,6, 1, 6, 0,21, 0.00,60.00,Friday
8,0.0
9,0.0
10,29.176249458098557
11,23.338092193416603
146,28.896858324897504
147,23.718322490398393
2,6, 1, 6, 0,22, 0.00,60.00,Friday
8,0.0
9,0.0
10,28.52439074716473
11,24.23706464487445
146,28.2587673358711
147,24.61405628390509
2,6, 1, 6, 0,23, 0.00,60.00,Friday
8,0.0
9,0.0
10,27.684262988527937
11,25.45326682244257
146,27.410070639815842
147,25.864613940115376
2,6, 1, 6, 0,24, 0.00,60.00,Friday
8,0.0
9,0.0
10,26.7730978259743
11,26.849365970762904
146,26.568877095995607
147,27.17358809936889
2,7, 1, 7, 0, 1, 0.00,60.00,Saturday
8,0.0
9,0.0
10,25.93247119503401
11,28.214311400530935
146,25.767103853139485
147,28.491865789741652
2,7, 1, 7, 0, 2, 0.00,60.00,Saturday
8,0.0
9,0.0
10,25.137610462322183
11,29.57745963119724
146,24.985722603629423
147,29.84633017012385
2,7, 1, 7, 0, 3, 0.00,60.00,Saturday
8,0.0
9,0.0
10,24.381137455021545
11,30.94416295215639
146,24.226329967144423
147,31.232697536835165
2,7, 1, 7, 0, 4, 0.00,60.00,Saturday
8,0.0
9,0.0
10,23.65015950089239
11,32.33297987745943
146,23.48315293531397
147,32.66012372706499
2,7, 1, 7, 0, 5, 0.00,60.00,Saturday
8,0.0
9,0.0
10,22.932009405119526
11,33.714768785104006
146,22.761937538200346
147,34.06404915422383
2,7, 1, 7, 0, 6, 0.00,60.00,Saturday
8,0.0
9,0.0
10,22.22921570426296
11,35.146959802857886
146,22.063381793051573
147,35.503852837460144
2,7, 1, 7, 0, 7, 0.00,60.00,Saturday
8,0.0
9,0.0
10,21.54413661267877
11,36.64801810138035
146,21.38434060783688
147,37.008414424475625
2,7, 1, 7, 0, 8, 0.00,60.00,Saturday
8,47.72222222222223
9,381.27777777777777
10,20.87601978621932
11,38.22831314465815
146,20.724839027640552
147,38.58565642138445
2,7, 1, 7, 0, 9, 0.00,60.00,Saturday
8,85.58333333333333
9,679.1666666666666
10,20.32349335716258
11,39.58750172184107
146,20.243676500604085
147,39.78258488817793
2,7, 1, 7, 0,10, 0.00,60.00,Saturday
8,95.91666666666667
9,847.0833333333334
10,20.125763673641444
11,40.119647258569195
146,20.280587029065533
147,39.73794714461383
2,7, 1, 7, 0,11, 0.00,60.00,Saturday
8,100.33333333333333
9,925.3333333333334
10,20.39985191053373
11,39.5241295622567
146,20.974298648781243
147,38.15488903690013
2,7, 1, 7, 0,12, 0.00,60.00,Saturday
8,105.5
9,950.9166666666666
10,21.092724631789434
11,37.879407384218446
146,22.334395342064013
147,35.12325178102144
2,7, 1, 7, 0,13, 0.00,60.00,Saturday
8,115.25
9,934.5
10,22.1529038207215
11,35.534304242487146
146,23.947776290751875
147,31.87902851845887
2,7, 1, 7, 0,14, 0.00,60.00,Saturday
8,121.75
9,888.75
10,23.58001483961147
11,32.63069411037525
146,25.375475466359656
147,29.304723733072965
2,7, 1, 7, 0,15, 0.00,60.00,Saturday
8,121.0
9,807.1666666666666
10,25.019980115776637
11,29.823058380503255
146,26.655990459315017
147,27.065242438643654
2,7, 1, 7, 0,16, 0.00,60.00,Saturday
8,101.25
9,705.8333333333334
10,26.461306609856056
11,27.41526842446822
146,27.78573525210474
147,25.36257037229909
2,7, 1, 7, 0,17, 0.00,60.00,Saturday
8,60.25
9,553.4166666666666
10,27.73930373820575
11,25.496037840574576
146,28.660905312152483
147,24.161772834787456
2,7, 1, 7, 0,18, 0.00,60.00,Saturday
8,20.500000000000004
9,246.5
10,28.687509954463184
11,23.95930049502716
146,29.21641296955322
147,23.23507383773047
2,7, 1, 7, 0,19, 0.00,60.00,Saturday
8,1.222222222222222
9,14.555555555555552
10,29.24140402057776
11,23.204293051674032
146,29.35182422376211
147,23.056936174525337
2,7, 1, 7, 0,20, 0.00,60.00,Saturday
8,0.0
9,0.0
10,29.27849241340708
11,23.221063952849544
146,29.09938836900811
147,23.462907731077962
2,7, 1, 7, 0,21, 0.00,60.00,Saturday
8,0.0
9,0.0
10,28.92413844309344
11,23.68530445039751
146,28.618966145774376
147,24.108086122422947
2,7, 1, 7, 0,22, 0.00,60.00,Saturday
8,0.0
9,0.0
10,28.34321769356535
11,24.49288410433933
146,28.042004413769472
147,24.925675543868824
2,7, 1, 7, 0,23, 0.00,60.00,Saturday
8,0.0
9,0.0
10,27.578597078918687
11,25.602312472597543
146,27.294321844994375
147,26.03188866871353
2,7, 1, 7, 0,24, 0.00,60.00,Saturday
8,0.0
9,0.0
10,26.73174765478325
11,26.78577368369385
146,26.47804567133609
147,27.18841872845935
2,8, 1, 8, 0, 1, 0.00,60.00,Sunday
8,0.0
9,0.0
10,25.92671687349151
11,28.012273862912384
146,25.737688756382813
147,28.32749689158886
2,8, 1, 8, 0, 2, 0.00,60.00,Sunday
8,0.0
9,0.0
10,25.18306666781693
11,29.29181732356237
146,25.01641897827007
147,29.58395880870684
2,8, 1, 8, 0, 3, 0.00,60.00,Sunday
8,0.0
9,0.0
10,24.46790175462156
11,30.585275607876255
146,24.308832891365345
147,30.87804761133407
2,8, 1, 8, 0, 4, 0.00,60.00,Sunday
8,0.0
9,0.0
10,23.766526429402997
11,31.91681392111717
146,23.603149134020924
147,32.23244838294204
2,8, 1, 8, 0, 5, 0.00,60.00,Sunday
8,0.0
9,0.0
10,23.05066711924664
11,33.34326266825587
146,22.879944729514424
147,33.68974820511459
2,8, 1, 8, 0, 6, 0.00,60.00,Sunday
8,0.0
9,0.0
10,22.322812226136254
11,34.86694864301968
146,22.150495751837045
147,35.23468869017651
2,8, 1, 8, 0, 7, 0.00,60.00,Sunday
8,0.0
9,0.0
10,21.595332198816266
11,36.5022191885725
146,21.42713355283202
147,36.88003478259886
2,8, 1, 8, 0, 8, 0.00,60.00,Sunday
8,34.80555555555556
9,504.1666666666667
10,20.880821108190418
11,38.19422710707614
146,20.71960180564373
147,38.57508021366751
2,8, 1, 8, 0, 9, 0.00,60.00,Sunday
8,67.16666666666667
9,775.25
10,20.29578321350642
11,39.66353801052983
146,20.221575718058844
147,39.84497002711893
2,8, 1, 8, 0,10, 0.00,60.00,Sunday
8,83.0
9,888.4166666666666
10,20.09216028487208
11,40.23306356652517
146,20.290949420371696
147,39.742406708957404
2,8, 1, 8, 0,11, 0.00,60.00,Sunday
8,91.0
9,948.9166666666666
10,20.407618165886706
11,39.50263827855917
146,21.095690127092634
147,37.87044998444673
2,8, 1, 8, 0,12, 0.00,60.00,Sunday
8,94.83333333333333
9,977.8333333333334
10,21.14240303722713
11,37.74599743477764
146,22.581024694462386
147,34.58607017208382
2,8, 1, 8, 0,13, 0.00,60.00,Sunday
8,95.41666666666667
9,984.1666666666666
10,22.228388469490167
11,35.374234463754966
146,24.234195985330103
147,31.337587461728788
2,8, 1, 8, 0,14, 0.00,60.00,Sunday
8,92.08333333333333
9,968.5833333333334
10,23.6372560863679
11,32.54215306008299
146,25.623795404364675
147,28.896605410240785
2,8, 1, 8, 0,15, 0.00,60.00,Sunday
8,84.75
9,924.5833333333334
10,25.063382760994497
11,29.758786692687575
146,26.86232291071472
147,26.749821835116183
2,8, 1, 8, 0,16, 0.00,60.00,Sunday
8,72.25
9,831.1666666666666
10,26.52519679168694
11,27.313407961524344
146,27.98018898505858
147,25.077224809162455
2,8, 1, 8, 0,17, 0.00,60.00,Sunday
8,49.333333333333336
9,628.8333333333334
10,27.86058942163318
11,25.316726208385447
146,28.87597996161684
147,23.86265874461195
2,8, 1, 8, 0,18, 0.00,60.00,Sunday
8,19.583333333333336
9,268.25
10,28.853969874315368
11,23.741316431986302
146,29.43769283418692
147,22.951643291037072
2,8, 1, 8, 0,19, 0.00,60.00,Sunday
8,1.222222222222222
9,15.666666666666664
10,29.43458233747889
11,22.96573982610749
146,29.559172149344487
147,22.80149585284647
2,8, 1, 8, 0,20, 0.00,60.00,Sunday
8,0.0
9,0.0
10,29.47859441123478
11,22.97173876177982
146,29.290500180957178
147,23.222702088508257
2,8, 1, 8, 0,21, 0.00,60.00,Sunday
8,0.0
9,0.0
10,29.121735349043774
11,23.432194750121795
146,28.79969712934583
147,23.873151902918206
2,8, 1, 8, 0,22, 0.00,60.00,Sunday
8,0.0
9,0.0
10,28.514383051378683
11,24.265714173766494
146,28.208875108985527
147,24.70016339609363
2,8, 1, 8, 0,23, 0.00,60.00,Sunday
8,0.0
9,0.0
10,27.732073642519648
11,25.387970877603305
146,27.43778017295068
147,25.828614510779705
2,8, 1, 8, 0,24, 0.00,60.00,Sunday
8,0.0
9,0.0
10,26.87144514415719
11,26.580071630022854
146,26.60936235242383
147,26.992464445996685
2,9, 1, 9, 0, 1, 0.00,60.00,Monday
8,0.0
9,0.0
10,26.057335549166154
11,27.809212063645077
146,25.863913580788093
147,28.129137661456685
2,9, 1, 9, 0, 2, 0.00,60.00,Monday
8,0.0
9,0.0
10,25.308931500634984
11,29.08431768794983
146,25.14049673496261
147,29.37721997883521
2,9, 1, 9, 0, 3, 0.00,60.00,Monday
8,0.0
9,0.0
10,24.59329988901935
11,30.366147181207296
146,24.43494497969624
147,30.65521277498941
2,9, 1, 9, 0, 4, 0.00,60.00,Monday
8,0.0
9,0.0
10,23.894121337862003
11,31.680829947624627
146,23.735341289437965
147,31.984935217838522
2,9, 1, 9, 0, 5, 0.00,60.00,Monday
8,0.0
9,0.0
10,23.193870485921334
11,33.062081929793386
146,23.025480158137338
147,33.400574712411206
2,9, 1, 9, 0, 6, 0.00,60.00,Monday
8,0.0
9,0.0
10,22.48872763280015
11,34.52151961351591
146,22.31690759687393
147,34.884121643491035